# vtk DataFile Version 2.0
./output/uniaxialExtension_HandMadeMesh/uniaxialExtension_HandMadeMesh_0001.vtk
ASCII
DATASET UNSTRUCTURED_GRID

POINTS 8 float
       0.000000e+00       0.000000e+00       0.000000e+00 
       0.000000e+00       0.000000e+00       9.065260e-01 
       0.000000e+00       9.065260e-01       9.065260e-01 
       0.000000e+00       9.065260e-01       0.000000e+00 
       2.525102e+00       0.000000e+00       0.000000e+00 
       2.525102e+00       0.000000e+00       9.065260e-01 
       2.525102e+00       9.065260e-01       9.065260e-01 
       2.525102e+00       9.065260e-01       0.000000e+00 

CELLS 6 30
4 0 3 1 5 
4 5 1 2 3 
4 3 2 5 6 
4 3 0 4 5 
4 3 5 4 7 
4 3 6 5 7 

CELL_TYPES 6
 10
 10
 10
 10
 10
 10

POINT_DATA         8 
VECTORS Displacements float
       0.00000000e+00       0.00000000e+00       0.00000000e+00 
       0.00000000e+00       0.00000000e+00      -9.34739964e-02 
       0.00000000e+00      -9.34739964e-02      -9.34739964e-02 
       0.00000000e+00      -9.34739964e-02       0.00000000e+00 
       5.25102255e-01       0.00000000e+00       0.00000000e+00 
       5.25102255e-01       0.00000000e+00      -9.34739964e-02 
       5.25102255e-01      -9.34739964e-02      -9.34739964e-02 
       5.25102255e-01      -9.34739964e-02       0.00000000e+00 

CELL_DATA         6 
SCALARS Von_Mises float 1
LOOKUP_TABLE default
       2.97017675e-01 
       2.97017675e-01 
       2.97017675e-01 
       2.97017675e-01 
       2.97017675e-01 
       2.97017675e-01 

SCALARS Sxx float 1
LOOKUP_TABLE default
       2.97017675e-01 
       2.97017675e-01 
       2.97017675e-01 
       2.97017675e-01 
       2.97017675e-01 
       2.97017675e-01 

