# vtk DataFile Version 2.0
./output/uniaxialExtension_HandMadeMesh/uniaxialExtension_HandMadeMesh_0006.vtk
ASCII
DATASET UNSTRUCTURED_GRID

POINTS 8 float
       0.000000e+00       0.000000e+00       0.000000e+00 
       0.000000e+00       0.000000e+00       5.206252e-01 
       0.000000e+00       5.206252e-01       5.206252e-01 
       0.000000e+00       5.206252e-01       0.000000e+00 
       3.703961e+00       0.000000e+00       0.000000e+00 
       3.703961e+00       0.000000e+00       5.206252e-01 
       3.703961e+00       5.206252e-01       5.206252e-01 
       3.703961e+00       5.206252e-01       0.000000e+00 

CELLS 6 30
4 0 3 1 5 
4 5 1 2 3 
4 3 2 5 6 
4 3 0 4 5 
4 3 5 4 7 
4 3 6 5 7 

CELL_TYPES 6
 10
 10
 10
 10
 10
 10

POINT_DATA         8 
VECTORS Displacements float
       0.00000000e+00       0.00000000e+00       0.00000000e+00 
       0.00000000e+00       0.00000000e+00      -4.79374790e-01 
       0.00000000e+00      -4.79374790e-01      -4.79374790e-01 
       0.00000000e+00      -4.79374790e-01       0.00000000e+00 
       1.70396077e+00       0.00000000e+00       0.00000000e+00 
       1.70396077e+00       0.00000000e+00      -4.79374790e-01 
       1.70396077e+00      -4.79374790e-01      -4.79374790e-01 
       1.70396077e+00      -4.79374790e-01       0.00000000e+00 

CELL_DATA         6 
SCALARS Von_Mises float 1
LOOKUP_TABLE default
       1.21491567e+00 
       1.21491567e+00 
       1.21491567e+00 
       1.21491567e+00 
       1.21491567e+00 
       1.21491567e+00 

SCALARS Sxx float 1
LOOKUP_TABLE default
       1.21491568e+00 
       1.21491568e+00 
       1.21491568e+00 
       1.21491568e+00 
       1.21491568e+00 
       1.21491568e+00 

