# vtk DataFile Version 2.0
./output/uniaxialExtension_HandMadeMesh/uniaxialExtension_HandMadeMesh_0003.vtk
ASCII
DATASET UNSTRUCTURED_GRID

POINTS 8 float
       0.000000e+00       0.000000e+00       0.000000e+00 
       0.000000e+00       0.000000e+00       7.535940e-01 
       0.000000e+00       7.535940e-01       7.535940e-01 
       0.000000e+00       7.535940e-01       0.000000e+00 
       3.124305e+00       0.000000e+00       0.000000e+00 
       3.124305e+00       0.000000e+00       7.535940e-01 
       3.124305e+00       7.535940e-01       7.535940e-01 
       3.124305e+00       7.535940e-01       0.000000e+00 

CELLS 6 30
4 0 3 1 5 
4 5 1 2 3 
4 3 2 5 6 
4 3 0 4 5 
4 3 5 4 7 
4 3 6 5 7 

CELL_TYPES 6
 10
 10
 10
 10
 10
 10

POINT_DATA         8 
VECTORS Displacements float
       0.00000000e+00       0.00000000e+00       0.00000000e+00 
       0.00000000e+00       0.00000000e+00      -2.46406015e-01 
       0.00000000e+00      -2.46406015e-01      -2.46406015e-01 
       0.00000000e+00      -2.46406015e-01       0.00000000e+00 
       1.12430495e+00       0.00000000e+00       0.00000000e+00 
       1.12430495e+00       0.00000000e+00      -2.46406015e-01 
       1.12430495e+00      -2.46406015e-01      -2.46406015e-01 
       1.12430495e+00      -2.46406015e-01       0.00000000e+00 

CELL_DATA         6 
SCALARS Von_Mises float 1
LOOKUP_TABLE default
       7.20160176e-01 
       7.20160176e-01 
       7.20160176e-01 
       7.20160176e-01 
       7.20160176e-01 
       7.20160176e-01 

SCALARS Sxx float 1
LOOKUP_TABLE default
       7.20160176e-01 
       7.20160176e-01 
       7.20160176e-01 
       7.20160176e-01 
       7.20160176e-01 
       7.20160176e-01 

