# vtk DataFile Version 2.0
./output/uniaxialExtension_GMSH_ComplexStep/uniaxialExtension_GMSH_ComplexStep_0004.vtk
ASCII
DATASET UNSTRUCTURED_GRID

POINTS 62 float
       0.000000e+00       0.000000e+00       0.000000e+00 
       0.000000e+00       0.000000e+00       6.794305e-01 
       0.000000e+00       6.794305e-01       6.794305e-01 
       0.000000e+00       6.794305e-01       0.000000e+00 
       3.343400e+00       0.000000e+00       0.000000e+00 
       3.343400e+00       0.000000e+00       6.794305e-01 
       3.343400e+00       6.794305e-01       6.794305e-01 
       3.343400e+00       6.794305e-01       0.000000e+00 
       0.000000e+00       6.794305e-01       3.397153e-01 
       8.358499e-01       6.794305e-01       6.794305e-01 
       1.671700e+00       6.794305e-01       6.794305e-01 
       2.507550e+00       6.794305e-01       6.794305e-01 
       3.343400e+00       6.794305e-01       3.397153e-01 
       2.507550e+00       6.794305e-01       0.000000e+00 
       1.671700e+00       6.794305e-01       0.000000e+00 
       8.358499e-01       6.794305e-01       0.000000e+00 
       0.000000e+00       0.000000e+00       3.397153e-01 
       8.358499e-01       0.000000e+00       6.794305e-01 
       1.671700e+00       0.000000e+00       6.794305e-01 
       2.507550e+00       0.000000e+00       6.794305e-01 
       3.343400e+00       0.000000e+00       3.397153e-01 
       2.507550e+00       0.000000e+00       0.000000e+00 
       1.671700e+00       0.000000e+00       0.000000e+00 
       8.358499e-01       0.000000e+00       0.000000e+00 
       0.000000e+00       3.397153e-01       0.000000e+00 
       0.000000e+00       3.397153e-01       6.794305e-01 
       3.343400e+00       3.397153e-01       0.000000e+00 
       3.343400e+00       3.397153e-01       6.794305e-01 
       2.089625e+00       6.794305e-01       2.942021e-01 
       1.253775e+00       6.794305e-01       3.852285e-01 
       2.793869e+00       6.794305e-01       4.301875e-01 
       5.495309e-01       6.794305e-01       2.492431e-01 
       2.858764e+00       6.794305e-01       1.963493e-01 
       4.846359e-01       6.794305e-01       4.830812e-01 
       2.089625e+00       3.852285e-01       0.000000e+00 
       1.253775e+00       3.049565e-01       0.000000e+00 
       2.793869e+00       2.492431e-01       0.000000e+00 
       5.482836e-01       4.325291e-01       0.000000e+00 
       4.956744e-01       2.019751e-01       0.000000e+00 
       2.858764e+00       4.830812e-01       0.000000e+00 
       3.343400e+00       4.798478e-01       1.995827e-01 
       3.343400e+00       2.547864e-01       2.547864e-01 
       3.343400e+00       4.373834e-01       4.402144e-01 
       3.343400e+00       1.910898e-01       4.883407e-01 
       1.253775e+00       3.852285e-01       6.794305e-01 
       2.089625e+00       3.049565e-01       6.794305e-01 
       5.495309e-01       2.492431e-01       6.794305e-01 
       2.795116e+00       4.325291e-01       6.794305e-01 
       2.847725e+00       2.019751e-01       6.794305e-01 
       4.846359e-01       4.830812e-01       6.794305e-01 
       0.000000e+00       1.995827e-01       4.798478e-01 
       0.000000e+00       4.246441e-01       4.246441e-01 
       0.000000e+00       2.420471e-01       2.392162e-01 
       0.000000e+00       4.883407e-01       1.910898e-01 
       2.089625e+00       0.000000e+00       2.942021e-01 
       1.253775e+00       0.000000e+00       3.852285e-01 
       2.793869e+00       0.000000e+00       4.301875e-01 
       5.495309e-01       0.000000e+00       2.492431e-01 
       2.858764e+00       0.000000e+00       1.963493e-01 
       4.846359e-01       0.000000e+00       4.830812e-01 
       8.356805e-01       3.349509e-01       3.303493e-01 
       2.512710e+00       3.462780e-01       3.473103e-01 

CELLS 144 720
4 44 60 29 61 
4 34 35 54 61 
4 45 54 55 61 
4 44 29 45 61 
4 29 28 45 61 
4 29 10 45 28 
4 28 35 29 14 
4 29 10 44 45 
4 14 28 35 34 
4 9 49 33 60 
4 13 39 32 61 
4 54 58 36 61 
4 45 18 55 54 
4 22 35 55 54 
4 43 48 42 61 
4 40 39 36 61 
4 18 55 44 45 
4 22 34 35 54 
4 45 28 11 61 
4 44 49 9 60 
4 9 33 29 60 
4 56 19 48 61 
4 34 39 13 61 
4 13 32 28 61 
4 56 54 19 61 
4 34 54 36 61 
4 43 56 48 61 
4 40 30 32 61 
4 35 29 15 60 
4 46 17 59 60 
4 39 40 32 61 
4 40 42 30 61 
4 40 36 41 61 
4 59 57 50 60 
4 11 28 30 61 
4 15 29 31 60 
4 11 47 45 61 
4 15 31 37 60 
4 35 15 29 14 
4 11 45 10 28 
4 54 21 36 58 
4 59 50 46 60 
4 11 30 47 61 
4 53 37 31 60 
4 52 50 57 60 
4 15 37 35 60 
4 43 41 56 61 
4 57 55 23 60 
4 52 37 53 60 
4 23 38 57 60 
4 47 42 48 61 
4 21 36 34 54 
4 45 48 19 61 
4 53 31 51 60 
4 19 54 45 61 
4 46 50 51 60 
4 36 58 41 61 
4 13 28 34 61 
4 44 9 29 60 
4 51 33 49 60 
4 55 59 17 60 
4 56 41 58 61 
4 23 55 35 60 
4 47 30 42 61 
4 51 49 46 60 
4 35 38 23 60 
4 31 33 51 60 
4 38 37 52 60 
4 38 52 57 60 
4 31 3 37 53 
4 42 41 43 61 
4 30 6 47 42 
4 57 16 59 50 
4 40 39 26 36 
4 40 30 12 32 
4 16 57 52 50 
4 42 30 12 40 
4 18 45 19 54 
4 23 35 55 22 
4 52 53 51 60 
4 54 56 58 61 
4 34 36 39 61 
4 40 41 42 61 
4 37 24 52 53 
4 44 46 49 60 
4 36 26 40 41 
4 44 55 18 17 
4 21 34 22 54 
4 51 50 52 60 
4 31 29 33 60 
4 48 45 47 61 
4 57 0 52 38 
4 32 30 28 61 
4 53 31 8 51 
4 43 20 56 41 
4 36 41 58 4 
4 43 56 5 48 
4 46 25 51 50 
4 59 55 57 60 
4 38 35 37 60 
4 59 1 46 50 
4 38 24 52 37 
4 0 16 57 52 
4 30 12 6 42 
4 41 36 26 4 
4 27 47 6 42 
4 49 25 51 46 
4 51 31 8 33 
4 41 20 56 58 
4 31 8 3 53 
4 56 20 43 5 
4 24 37 3 53 
4 25 46 1 50 
4 51 33 2 49 
4 24 52 0 38 
4 37 15 3 31 
4 47 11 6 30 
4 58 41 20 4 
4 33 8 51 2 
4 25 51 2 49 
4 10 9 29 44 
4 14 13 28 34 
4 48 5 43 27 
4 32 12 40 7 
4 39 7 40 26 
4 16 1 59 50 
4 40 32 7 39 
4 5 56 19 48 
4 0 57 23 38 
4 46 1 59 17 
4 13 7 32 39 
4 58 21 36 4 
4 9 2 33 49 
4 61 44 55 45 
4 61 55 44 60 
4 61 35 28 34 
4 61 55 35 54 
4 61 35 55 60 
4 61 29 35 60 
4 61 35 29 28 
4 42 48 27 47 
4 42 27 48 43 
4 17 60 44 55 
4 44 60 17 46 

CELL_TYPES 144
 10
 10
 10
 10
 10
 10
 10
 10
 10
 10
 10
 10
 10
 10
 10
 10
 10
 10
 10
 10
 10
 10
 10
 10
 10
 10
 10
 10
 10
 10
 10
 10
 10
 10
 10
 10
 10
 10
 10
 10
 10
 10
 10
 10
 10
 10
 10
 10
 10
 10
 10
 10
 10
 10
 10
 10
 10
 10
 10
 10
 10
 10
 10
 10
 10
 10
 10
 10
 10
 10
 10
 10
 10
 10
 10
 10
 10
 10
 10
 10
 10
 10
 10
 10
 10
 10
 10
 10
 10
 10
 10
 10
 10
 10
 10
 10
 10
 10
 10
 10
 10
 10
 10
 10
 10
 10
 10
 10
 10
 10
 10
 10
 10
 10
 10
 10
 10
 10
 10
 10
 10
 10
 10
 10
 10
 10
 10
 10
 10
 10
 10
 10
 10
 10
 10
 10
 10
 10
 10
 10
 10
 10
 10
 10

POINT_DATA        62 
VECTORS Displacements float
       0.00000000e+00       0.00000000e+00       0.00000000e+00 
       0.00000000e+00       0.00000000e+00      -3.20569467e-01 
       0.00000000e+00      -3.20569467e-01      -3.20569467e-01 
       0.00000000e+00      -3.20569467e-01       0.00000000e+00 
       1.34339977e+00       0.00000000e+00       0.00000000e+00 
       1.34339977e+00       0.00000000e+00      -3.20569467e-01 
       1.34339977e+00      -3.20569467e-01      -3.20569467e-01 
       1.34339977e+00      -3.20569467e-01       0.00000000e+00 
       0.00000000e+00      -3.20569467e-01      -1.60284734e-01 
       3.35849943e-01      -3.20569467e-01      -3.20569467e-01 
       6.71699885e-01      -3.20569467e-01      -3.20569467e-01 
       1.00754983e+00      -3.20569467e-01      -3.20569467e-01 
       1.34339977e+00      -3.20569467e-01      -1.60284734e-01 
       1.00754983e+00      -3.20569467e-01       0.00000000e+00 
       6.71699885e-01      -3.20569467e-01       0.00000000e+00 
       3.35849943e-01      -3.20569467e-01       0.00000000e+00 
       0.00000000e+00       0.00000000e+00      -1.60284734e-01 
       3.35849943e-01       0.00000000e+00      -3.20569467e-01 
       6.71699885e-01       0.00000000e+00      -3.20569467e-01 
       1.00754983e+00       0.00000000e+00      -3.20569467e-01 
       1.34339977e+00       0.00000000e+00      -1.60284734e-01 
       1.00754983e+00       0.00000000e+00       0.00000000e+00 
       6.71699885e-01       0.00000000e+00       0.00000000e+00 
       3.35849943e-01       0.00000000e+00       0.00000000e+00 
       0.00000000e+00      -1.60284734e-01       0.00000000e+00 
       0.00000000e+00      -1.60284734e-01      -3.20569467e-01 
       1.34339977e+00      -1.60284734e-01       0.00000000e+00 
       1.34339977e+00      -1.60284734e-01      -3.20569467e-01 
       8.39624857e-01      -3.20569467e-01      -1.38810651e-01 
       5.03774914e-01      -3.20569467e-01      -1.81758816e-01 
       1.12259467e+00      -3.20569467e-01      -2.02971398e-01 
       2.20805104e-01      -3.20569467e-01      -1.17598069e-01 
       1.14866990e+00      -3.20569467e-01      -9.26417013e-02 
       1.94729872e-01      -3.20569467e-01      -2.27927766e-01 
       8.39624857e-01      -1.81758816e-01       0.00000000e+00 
       5.03774914e-01      -1.43884806e-01       0.00000000e+00 
       1.12259467e+00      -1.17598069e-01       0.00000000e+00 
       2.20303935e-01      -2.04076250e-01       0.00000000e+00 
       1.99165210e-01      -9.52960554e-02       0.00000000e+00 
       1.14866990e+00      -2.27927766e-01       0.00000000e+00 
       1.34339977e+00      -2.26402186e-01      -9.41672810e-02 
       1.34339977e+00      -1.20213550e-01      -1.20213550e-01 
       1.34339977e+00      -2.06366595e-01      -2.07702301e-01 
       1.34339977e+00      -9.01601627e-02      -2.30409305e-01 
       5.03774914e-01      -1.81758816e-01      -3.20569467e-01 
       8.39624857e-01      -1.43884806e-01      -3.20569467e-01 
       2.20805104e-01      -1.17598069e-01      -3.20569467e-01 
       1.12309584e+00      -2.04076250e-01      -3.20569467e-01 
       1.14423456e+00      -9.52960554e-02      -3.20569467e-01 
       1.94729872e-01      -2.27927766e-01      -3.20569467e-01 
       0.00000000e+00      -9.41672810e-02      -2.26402186e-01 
       0.00000000e+00      -2.00355917e-01      -2.00355917e-01 
       0.00000000e+00      -1.14202873e-01      -1.12867167e-01 
       0.00000000e+00      -2.30409305e-01      -9.01601627e-02 
       8.39624857e-01       0.00000000e+00      -1.38810651e-01 
       5.03774914e-01       0.00000000e+00      -1.81758816e-01 
       1.12259467e+00       0.00000000e+00      -2.02971398e-01 
       2.20805104e-01       0.00000000e+00      -1.17598069e-01 
       1.14866990e+00       0.00000000e+00      -9.26417013e-02 
       1.94729872e-01       0.00000000e+00      -2.27927766e-01 
       3.35781860e-01      -1.58036819e-01      -1.55865681e-01 
       1.00962331e+00      -1.63381170e-01      -1.63868219e-01 

CELL_DATA       144 
SCALARS Von_Mises float 1
LOOKUP_TABLE default
       8.97290253e-01 
       8.97290253e-01 
       8.97290253e-01 
       8.97290253e-01 
       8.97290253e-01 
       8.97290253e-01 
       8.97290253e-01 
       8.97290253e-01 
       8.97290253e-01 
       8.97290253e-01 
       8.97290253e-01 
       8.97290253e-01 
       8.97290253e-01 
       8.97290253e-01 
       8.97290253e-01 
       8.97290253e-01 
       8.97290253e-01 
       8.97290253e-01 
       8.97290253e-01 
       8.97290253e-01 
       8.97290253e-01 
       8.97290253e-01 
       8.97290253e-01 
       8.97290253e-01 
       8.97290253e-01 
       8.97290253e-01 
       8.97290253e-01 
       8.97290253e-01 
       8.97290253e-01 
       8.97290253e-01 
       8.97290253e-01 
       8.97290253e-01 
       8.97290253e-01 
       8.97290253e-01 
       8.97290253e-01 
       8.97290253e-01 
       8.97290253e-01 
       8.97290253e-01 
       8.97290253e-01 
       8.97290253e-01 
       8.97290253e-01 
       8.97290253e-01 
       8.97290253e-01 
       8.97290253e-01 
       8.97290253e-01 
       8.97290253e-01 
       8.97290253e-01 
       8.97290253e-01 
       8.97290253e-01 
       8.97290253e-01 
       8.97290253e-01 
       8.97290253e-01 
       8.97290253e-01 
       8.97290253e-01 
       8.97290253e-01 
       8.97290253e-01 
       8.97290253e-01 
       8.97290253e-01 
       8.97290253e-01 
       8.97290253e-01 
       8.97290253e-01 
       8.97290253e-01 
       8.97290253e-01 
       8.97290253e-01 
       8.97290253e-01 
       8.97290253e-01 
       8.97290253e-01 
       8.97290253e-01 
       8.97290253e-01 
       8.97290253e-01 
       8.97290253e-01 
       8.97290253e-01 
       8.97290253e-01 
       8.97290253e-01 
       8.97290253e-01 
       8.97290253e-01 
       8.97290253e-01 
       8.97290253e-01 
       8.97290253e-01 
       8.97290253e-01 
       8.97290253e-01 
       8.97290253e-01 
       8.97290253e-01 
       8.97290253e-01 
       8.97290253e-01 
       8.97290253e-01 
       8.97290253e-01 
       8.97290253e-01 
       8.97290253e-01 
       8.97290253e-01 
       8.97290253e-01 
       8.97290253e-01 
       8.97290253e-01 
       8.97290253e-01 
       8.97290253e-01 
       8.97290253e-01 
       8.97290253e-01 
       8.97290253e-01 
       8.97290253e-01 
       8.97290253e-01 
       8.97290253e-01 
       8.97290253e-01 
       8.97290253e-01 
       8.97290253e-01 
       8.97290253e-01 
       8.97290253e-01 
       8.97290253e-01 
       8.97290253e-01 
       8.97290253e-01 
       8.97290253e-01 
       8.97290253e-01 
       8.97290253e-01 
       8.97290253e-01 
       8.97290253e-01 
       8.97290253e-01 
       8.97290253e-01 
       8.97290253e-01 
       8.97290253e-01 
       8.97290253e-01 
       8.97290253e-01 
       8.97290253e-01 
       8.97290253e-01 
       8.97290253e-01 
       8.97290253e-01 
       8.97290253e-01 
       8.97290253e-01 
       8.97290253e-01 
       8.97290253e-01 
       8.97290253e-01 
       8.97290253e-01 
       8.97290253e-01 
       8.97290253e-01 
       8.97290253e-01 
       8.97290253e-01 
       8.97290253e-01 
       8.97290253e-01 
       8.97290253e-01 
       8.97290253e-01 
       8.97290253e-01 
       8.97290253e-01 
       8.97290253e-01 
       8.97290253e-01 
       8.97290253e-01 
       8.97290253e-01 

SCALARS Sxx float 1
LOOKUP_TABLE default
       8.97290254e-01 
       8.97290254e-01 
       8.97290254e-01 
       8.97290254e-01 
       8.97290254e-01 
       8.97290254e-01 
       8.97290254e-01 
       8.97290254e-01 
       8.97290254e-01 
       8.97290254e-01 
       8.97290254e-01 
       8.97290254e-01 
       8.97290254e-01 
       8.97290254e-01 
       8.97290254e-01 
       8.97290254e-01 
       8.97290254e-01 
       8.97290254e-01 
       8.97290254e-01 
       8.97290254e-01 
       8.97290254e-01 
       8.97290254e-01 
       8.97290254e-01 
       8.97290254e-01 
       8.97290254e-01 
       8.97290254e-01 
       8.97290254e-01 
       8.97290254e-01 
       8.97290254e-01 
       8.97290254e-01 
       8.97290254e-01 
       8.97290254e-01 
       8.97290254e-01 
       8.97290254e-01 
       8.97290254e-01 
       8.97290254e-01 
       8.97290254e-01 
       8.97290254e-01 
       8.97290254e-01 
       8.97290254e-01 
       8.97290254e-01 
       8.97290254e-01 
       8.97290254e-01 
       8.97290254e-01 
       8.97290254e-01 
       8.97290254e-01 
       8.97290254e-01 
       8.97290254e-01 
       8.97290254e-01 
       8.97290254e-01 
       8.97290254e-01 
       8.97290254e-01 
       8.97290254e-01 
       8.97290254e-01 
       8.97290254e-01 
       8.97290254e-01 
       8.97290254e-01 
       8.97290254e-01 
       8.97290254e-01 
       8.97290254e-01 
       8.97290254e-01 
       8.97290254e-01 
       8.97290254e-01 
       8.97290254e-01 
       8.97290254e-01 
       8.97290254e-01 
       8.97290254e-01 
       8.97290254e-01 
       8.97290254e-01 
       8.97290254e-01 
       8.97290254e-01 
       8.97290254e-01 
       8.97290254e-01 
       8.97290254e-01 
       8.97290254e-01 
       8.97290254e-01 
       8.97290254e-01 
       8.97290254e-01 
       8.97290254e-01 
       8.97290254e-01 
       8.97290254e-01 
       8.97290254e-01 
       8.97290254e-01 
       8.97290254e-01 
       8.97290254e-01 
       8.97290254e-01 
       8.97290254e-01 
       8.97290254e-01 
       8.97290254e-01 
       8.97290254e-01 
       8.97290254e-01 
       8.97290254e-01 
       8.97290254e-01 
       8.97290254e-01 
       8.97290254e-01 
       8.97290254e-01 
       8.97290254e-01 
       8.97290254e-01 
       8.97290254e-01 
       8.97290254e-01 
       8.97290254e-01 
       8.97290254e-01 
       8.97290254e-01 
       8.97290254e-01 
       8.97290254e-01 
       8.97290254e-01 
       8.97290254e-01 
       8.97290254e-01 
       8.97290254e-01 
       8.97290254e-01 
       8.97290254e-01 
       8.97290254e-01 
       8.97290254e-01 
       8.97290254e-01 
       8.97290254e-01 
       8.97290254e-01 
       8.97290254e-01 
       8.97290254e-01 
       8.97290254e-01 
       8.97290254e-01 
       8.97290254e-01 
       8.97290254e-01 
       8.97290254e-01 
       8.97290254e-01 
       8.97290254e-01 
       8.97290254e-01 
       8.97290254e-01 
       8.97290254e-01 
       8.97290254e-01 
       8.97290254e-01 
       8.97290254e-01 
       8.97290254e-01 
       8.97290254e-01 
       8.97290254e-01 
       8.97290254e-01 
       8.97290254e-01 
       8.97290254e-01 
       8.97290254e-01 
       8.97290254e-01 
       8.97290254e-01 
       8.97290254e-01 
       8.97290254e-01 
       8.97290254e-01 
       8.97290254e-01 

