# vtk DataFile Version 2.0
./output/uniaxialExtension_GMSH_ComplexStep/uniaxialExtension_GMSH_ComplexStep_0001.vtk
ASCII
DATASET UNSTRUCTURED_GRID

POINTS 62 float
       0.000000e+00       0.000000e+00       0.000000e+00 
       0.000000e+00       0.000000e+00       9.065260e-01 
       0.000000e+00       9.065260e-01       9.065260e-01 
       0.000000e+00       9.065260e-01       0.000000e+00 
       2.525102e+00       0.000000e+00       0.000000e+00 
       2.525102e+00       0.000000e+00       9.065260e-01 
       2.525102e+00       9.065260e-01       9.065260e-01 
       2.525102e+00       9.065260e-01       0.000000e+00 
       0.000000e+00       9.065260e-01       4.532630e-01 
       6.312756e-01       9.065260e-01       9.065260e-01 
       1.262551e+00       9.065260e-01       9.065260e-01 
       1.893827e+00       9.065260e-01       9.065260e-01 
       2.525102e+00       9.065260e-01       4.532630e-01 
       1.893827e+00       9.065260e-01       0.000000e+00 
       1.262551e+00       9.065260e-01       0.000000e+00 
       6.312756e-01       9.065260e-01       0.000000e+00 
       0.000000e+00       0.000000e+00       4.532630e-01 
       6.312756e-01       0.000000e+00       9.065260e-01 
       1.262551e+00       0.000000e+00       9.065260e-01 
       1.893827e+00       0.000000e+00       9.065260e-01 
       2.525102e+00       0.000000e+00       4.532630e-01 
       1.893827e+00       0.000000e+00       0.000000e+00 
       1.262551e+00       0.000000e+00       0.000000e+00 
       6.312756e-01       0.000000e+00       0.000000e+00 
       0.000000e+00       4.532630e-01       0.000000e+00 
       0.000000e+00       4.532630e-01       9.065260e-01 
       2.525102e+00       4.532630e-01       0.000000e+00 
       2.525102e+00       4.532630e-01       9.065260e-01 
       1.578189e+00       9.065260e-01       3.925373e-01 
       9.469133e-01       9.065260e-01       5.139887e-01 
       2.110069e+00       9.065260e-01       5.739750e-01 
       4.150332e-01       9.065260e-01       3.325510e-01 
       2.159081e+00       9.065260e-01       2.619779e-01 
       3.660212e-01       9.065260e-01       6.445481e-01 
       1.578189e+00       5.139887e-01       0.000000e+00 
       9.469133e-01       4.068863e-01       0.000000e+00 
       2.110069e+00       3.325510e-01       0.000000e+00 
       4.140912e-01       5.770993e-01       0.000000e+00 
       3.743581e-01       2.694840e-01       0.000000e+00 
       2.159081e+00       6.445481e-01       0.000000e+00 
       2.525102e+00       6.402340e-01       2.662920e-01 
       2.525102e+00       3.399473e-01       3.399473e-01 
       2.525102e+00       5.835761e-01       5.873533e-01 
       2.525102e+00       2.549604e-01       6.515656e-01 
       9.469133e-01       5.139887e-01       9.065260e-01 
       1.578189e+00       4.068863e-01       9.065260e-01 
       4.150332e-01       3.325510e-01       9.065260e-01 
       2.111011e+00       5.770993e-01       9.065260e-01 
       2.150744e+00       2.694840e-01       9.065260e-01 
       3.660212e-01       6.445481e-01       9.065260e-01 
       0.000000e+00       2.662920e-01       6.402340e-01 
       0.000000e+00       5.665788e-01       5.665788e-01 
       0.000000e+00       3.229499e-01       3.191727e-01 
       0.000000e+00       6.515656e-01       2.549604e-01 
       1.578189e+00       0.000000e+00       3.925373e-01 
       9.469133e-01       0.000000e+00       5.139887e-01 
       2.110069e+00       0.000000e+00       5.739750e-01 
       4.150332e-01       0.000000e+00       3.325510e-01 
       2.159081e+00       0.000000e+00       2.619779e-01 
       3.660212e-01       0.000000e+00       6.445481e-01 
       6.311476e-01       4.469062e-01       4.407665e-01 
       1.897724e+00       4.620193e-01       4.633966e-01 

CELLS 144 720
4 44 60 29 61 
4 34 35 54 61 
4 45 54 55 61 
4 44 29 45 61 
4 29 28 45 61 
4 29 10 45 28 
4 28 35 29 14 
4 29 10 44 45 
4 14 28 35 34 
4 9 49 33 60 
4 13 39 32 61 
4 54 58 36 61 
4 45 18 55 54 
4 22 35 55 54 
4 43 48 42 61 
4 40 39 36 61 
4 18 55 44 45 
4 22 34 35 54 
4 45 28 11 61 
4 44 49 9 60 
4 9 33 29 60 
4 56 19 48 61 
4 34 39 13 61 
4 13 32 28 61 
4 56 54 19 61 
4 34 54 36 61 
4 43 56 48 61 
4 40 30 32 61 
4 35 29 15 60 
4 46 17 59 60 
4 39 40 32 61 
4 40 42 30 61 
4 40 36 41 61 
4 59 57 50 60 
4 11 28 30 61 
4 15 29 31 60 
4 11 47 45 61 
4 15 31 37 60 
4 35 15 29 14 
4 11 45 10 28 
4 54 21 36 58 
4 59 50 46 60 
4 11 30 47 61 
4 53 37 31 60 
4 52 50 57 60 
4 15 37 35 60 
4 43 41 56 61 
4 57 55 23 60 
4 52 37 53 60 
4 23 38 57 60 
4 47 42 48 61 
4 21 36 34 54 
4 45 48 19 61 
4 53 31 51 60 
4 19 54 45 61 
4 46 50 51 60 
4 36 58 41 61 
4 13 28 34 61 
4 44 9 29 60 
4 51 33 49 60 
4 55 59 17 60 
4 56 41 58 61 
4 23 55 35 60 
4 47 30 42 61 
4 51 49 46 60 
4 35 38 23 60 
4 31 33 51 60 
4 38 37 52 60 
4 38 52 57 60 
4 31 3 37 53 
4 42 41 43 61 
4 30 6 47 42 
4 57 16 59 50 
4 40 39 26 36 
4 40 30 12 32 
4 16 57 52 50 
4 42 30 12 40 
4 18 45 19 54 
4 23 35 55 22 
4 52 53 51 60 
4 54 56 58 61 
4 34 36 39 61 
4 40 41 42 61 
4 37 24 52 53 
4 44 46 49 60 
4 36 26 40 41 
4 44 55 18 17 
4 21 34 22 54 
4 51 50 52 60 
4 31 29 33 60 
4 48 45 47 61 
4 57 0 52 38 
4 32 30 28 61 
4 53 31 8 51 
4 43 20 56 41 
4 36 41 58 4 
4 43 56 5 48 
4 46 25 51 50 
4 59 55 57 60 
4 38 35 37 60 
4 59 1 46 50 
4 38 24 52 37 
4 0 16 57 52 
4 30 12 6 42 
4 41 36 26 4 
4 27 47 6 42 
4 49 25 51 46 
4 51 31 8 33 
4 41 20 56 58 
4 31 8 3 53 
4 56 20 43 5 
4 24 37 3 53 
4 25 46 1 50 
4 51 33 2 49 
4 24 52 0 38 
4 37 15 3 31 
4 47 11 6 30 
4 58 41 20 4 
4 33 8 51 2 
4 25 51 2 49 
4 10 9 29 44 
4 14 13 28 34 
4 48 5 43 27 
4 32 12 40 7 
4 39 7 40 26 
4 16 1 59 50 
4 40 32 7 39 
4 5 56 19 48 
4 0 57 23 38 
4 46 1 59 17 
4 13 7 32 39 
4 58 21 36 4 
4 9 2 33 49 
4 61 44 55 45 
4 61 55 44 60 
4 61 35 28 34 
4 61 55 35 54 
4 61 35 55 60 
4 61 29 35 60 
4 61 35 29 28 
4 42 48 27 47 
4 42 27 48 43 
4 17 60 44 55 
4 44 60 17 46 

CELL_TYPES 144
 10
 10
 10
 10
 10
 10
 10
 10
 10
 10
 10
 10
 10
 10
 10
 10
 10
 10
 10
 10
 10
 10
 10
 10
 10
 10
 10
 10
 10
 10
 10
 10
 10
 10
 10
 10
 10
 10
 10
 10
 10
 10
 10
 10
 10
 10
 10
 10
 10
 10
 10
 10
 10
 10
 10
 10
 10
 10
 10
 10
 10
 10
 10
 10
 10
 10
 10
 10
 10
 10
 10
 10
 10
 10
 10
 10
 10
 10
 10
 10
 10
 10
 10
 10
 10
 10
 10
 10
 10
 10
 10
 10
 10
 10
 10
 10
 10
 10
 10
 10
 10
 10
 10
 10
 10
 10
 10
 10
 10
 10
 10
 10
 10
 10
 10
 10
 10
 10
 10
 10
 10
 10
 10
 10
 10
 10
 10
 10
 10
 10
 10
 10
 10
 10
 10
 10
 10
 10
 10
 10
 10
 10
 10
 10

POINT_DATA        62 
VECTORS Displacements float
       0.00000000e+00       0.00000000e+00       0.00000000e+00 
       0.00000000e+00       0.00000000e+00      -9.34739964e-02 
       0.00000000e+00      -9.34739964e-02      -9.34739964e-02 
       0.00000000e+00      -9.34739964e-02       0.00000000e+00 
       5.25102255e-01       0.00000000e+00       0.00000000e+00 
       5.25102255e-01       0.00000000e+00      -9.34739964e-02 
       5.25102255e-01      -9.34739964e-02      -9.34739964e-02 
       5.25102255e-01      -9.34739964e-02       0.00000000e+00 
       0.00000000e+00      -9.34739964e-02      -4.67369982e-02 
       1.31275564e-01      -9.34739964e-02      -9.34739964e-02 
       2.62551127e-01      -9.34739964e-02      -9.34739964e-02 
       3.93826691e-01      -9.34739964e-02      -9.34739964e-02 
       5.25102255e-01      -9.34739964e-02      -4.67369982e-02 
       3.93826691e-01      -9.34739964e-02       0.00000000e+00 
       2.62551127e-01      -9.34739964e-02       0.00000000e+00 
       1.31275564e-01      -9.34739964e-02       0.00000000e+00 
       0.00000000e+00       0.00000000e+00      -4.67369982e-02 
       1.31275564e-01       0.00000000e+00      -9.34739964e-02 
       2.62551127e-01       0.00000000e+00      -9.34739964e-02 
       3.93826691e-01       0.00000000e+00      -9.34739964e-02 
       5.25102255e-01       0.00000000e+00      -4.67369982e-02 
       3.93826691e-01       0.00000000e+00       0.00000000e+00 
       2.62551127e-01       0.00000000e+00       0.00000000e+00 
       1.31275564e-01       0.00000000e+00       0.00000000e+00 
       0.00000000e+00      -4.67369982e-02       0.00000000e+00 
       0.00000000e+00      -4.67369982e-02      -9.34739964e-02 
       5.25102255e-01      -4.67369982e-02       0.00000000e+00 
       5.25102255e-01      -4.67369982e-02      -9.34739964e-02 
       3.28188909e-01      -9.34739964e-02      -4.04754277e-02 
       1.96913346e-01      -9.34739964e-02      -5.29985687e-02 
       4.38794917e-01      -9.34739964e-02      -5.91838889e-02 
       8.63073381e-02      -9.34739964e-02      -3.42901075e-02 
       4.48987090e-01      -9.34739964e-02      -2.70131467e-02 
       7.61151647e-02      -9.34739964e-02      -6.64608497e-02 
       3.28188909e-01      -5.29985687e-02       0.00000000e+00 
       1.96913346e-01      -4.19549871e-02       0.00000000e+00 
       4.38794917e-01      -3.42901075e-02       0.00000000e+00 
       8.61114433e-02      -5.95060498e-02       0.00000000e+00 
       7.78488302e-02      -2.77871228e-02       0.00000000e+00 
       4.48987090e-01      -6.64608497e-02       0.00000000e+00 
       5.25102255e-01      -6.60160100e-02      -2.74579864e-02 
       5.25102255e-01      -3.50527486e-02      -3.50527486e-02 
       5.25102255e-01      -6.01738852e-02      -6.05633602e-02 
       5.25102255e-01      -2.62895615e-02      -6.71844349e-02 
       1.96913346e-01      -5.29985687e-02      -9.34739964e-02 
       3.28188909e-01      -4.19549871e-02      -9.34739964e-02 
       8.63073381e-02      -3.42901075e-02      -9.34739964e-02 
       4.38990812e-01      -5.95060498e-02      -9.34739964e-02 
       4.47253425e-01      -2.77871228e-02      -9.34739964e-02 
       7.61151647e-02      -6.64608497e-02      -9.34739964e-02 
       0.00000000e+00      -2.74579864e-02      -6.60160100e-02 
       0.00000000e+00      -5.84212477e-02      -5.84212477e-02 
       0.00000000e+00      -3.33001112e-02      -3.29106362e-02 
       0.00000000e+00      -6.71844349e-02      -2.62895615e-02 
       3.28188909e-01       0.00000000e+00      -4.04754277e-02 
       1.96913346e-01       0.00000000e+00      -5.29985687e-02 
       4.38794917e-01       0.00000000e+00      -5.91838889e-02 
       8.63073381e-02       0.00000000e+00      -3.42901075e-02 
       4.48987090e-01       0.00000000e+00      -2.70131467e-02 
       7.61151647e-02       0.00000000e+00      -6.64608497e-02 
       1.31248952e-01      -4.60815348e-02      -4.54484585e-02 
       3.94637166e-01      -4.76398797e-02      -4.77818971e-02 

CELL_DATA       144 
SCALARS Von_Mises float 1
LOOKUP_TABLE default
       2.97017675e-01 
       2.97017675e-01 
       2.97017675e-01 
       2.97017675e-01 
       2.97017675e-01 
       2.97017675e-01 
       2.97017675e-01 
       2.97017675e-01 
       2.97017675e-01 
       2.97017675e-01 
       2.97017675e-01 
       2.97017675e-01 
       2.97017675e-01 
       2.97017675e-01 
       2.97017675e-01 
       2.97017675e-01 
       2.97017675e-01 
       2.97017675e-01 
       2.97017675e-01 
       2.97017675e-01 
       2.97017675e-01 
       2.97017675e-01 
       2.97017675e-01 
       2.97017675e-01 
       2.97017675e-01 
       2.97017675e-01 
       2.97017675e-01 
       2.97017675e-01 
       2.97017675e-01 
       2.97017675e-01 
       2.97017675e-01 
       2.97017675e-01 
       2.97017675e-01 
       2.97017675e-01 
       2.97017675e-01 
       2.97017675e-01 
       2.97017675e-01 
       2.97017675e-01 
       2.97017675e-01 
       2.97017675e-01 
       2.97017675e-01 
       2.97017675e-01 
       2.97017675e-01 
       2.97017675e-01 
       2.97017675e-01 
       2.97017675e-01 
       2.97017675e-01 
       2.97017675e-01 
       2.97017675e-01 
       2.97017675e-01 
       2.97017675e-01 
       2.97017675e-01 
       2.97017675e-01 
       2.97017675e-01 
       2.97017675e-01 
       2.97017675e-01 
       2.97017675e-01 
       2.97017675e-01 
       2.97017675e-01 
       2.97017675e-01 
       2.97017675e-01 
       2.97017675e-01 
       2.97017675e-01 
       2.97017675e-01 
       2.97017675e-01 
       2.97017675e-01 
       2.97017675e-01 
       2.97017675e-01 
       2.97017675e-01 
       2.97017675e-01 
       2.97017675e-01 
       2.97017675e-01 
       2.97017675e-01 
       2.97017675e-01 
       2.97017675e-01 
       2.97017675e-01 
       2.97017675e-01 
       2.97017675e-01 
       2.97017675e-01 
       2.97017675e-01 
       2.97017675e-01 
       2.97017675e-01 
       2.97017675e-01 
       2.97017675e-01 
       2.97017675e-01 
       2.97017675e-01 
       2.97017675e-01 
       2.97017675e-01 
       2.97017675e-01 
       2.97017675e-01 
       2.97017675e-01 
       2.97017675e-01 
       2.97017675e-01 
       2.97017675e-01 
       2.97017675e-01 
       2.97017675e-01 
       2.97017675e-01 
       2.97017675e-01 
       2.97017675e-01 
       2.97017675e-01 
       2.97017675e-01 
       2.97017675e-01 
       2.97017675e-01 
       2.97017675e-01 
       2.97017675e-01 
       2.97017675e-01 
       2.97017675e-01 
       2.97017675e-01 
       2.97017675e-01 
       2.97017675e-01 
       2.97017675e-01 
       2.97017675e-01 
       2.97017675e-01 
       2.97017675e-01 
       2.97017675e-01 
       2.97017675e-01 
       2.97017675e-01 
       2.97017675e-01 
       2.97017675e-01 
       2.97017675e-01 
       2.97017675e-01 
       2.97017675e-01 
       2.97017675e-01 
       2.97017675e-01 
       2.97017675e-01 
       2.97017675e-01 
       2.97017675e-01 
       2.97017675e-01 
       2.97017675e-01 
       2.97017675e-01 
       2.97017675e-01 
       2.97017675e-01 
       2.97017675e-01 
       2.97017675e-01 
       2.97017675e-01 
       2.97017675e-01 
       2.97017675e-01 
       2.97017675e-01 
       2.97017675e-01 
       2.97017675e-01 
       2.97017675e-01 
       2.97017675e-01 
       2.97017675e-01 
       2.97017675e-01 

SCALARS Sxx float 1
LOOKUP_TABLE default
       2.97017675e-01 
       2.97017675e-01 
       2.97017675e-01 
       2.97017675e-01 
       2.97017675e-01 
       2.97017675e-01 
       2.97017675e-01 
       2.97017675e-01 
       2.97017675e-01 
       2.97017675e-01 
       2.97017675e-01 
       2.97017675e-01 
       2.97017675e-01 
       2.97017675e-01 
       2.97017675e-01 
       2.97017675e-01 
       2.97017675e-01 
       2.97017675e-01 
       2.97017675e-01 
       2.97017675e-01 
       2.97017675e-01 
       2.97017675e-01 
       2.97017675e-01 
       2.97017675e-01 
       2.97017675e-01 
       2.97017675e-01 
       2.97017675e-01 
       2.97017675e-01 
       2.97017675e-01 
       2.97017675e-01 
       2.97017675e-01 
       2.97017675e-01 
       2.97017675e-01 
       2.97017675e-01 
       2.97017675e-01 
       2.97017675e-01 
       2.97017675e-01 
       2.97017675e-01 
       2.97017675e-01 
       2.97017675e-01 
       2.97017675e-01 
       2.97017675e-01 
       2.97017675e-01 
       2.97017675e-01 
       2.97017675e-01 
       2.97017675e-01 
       2.97017675e-01 
       2.97017675e-01 
       2.97017675e-01 
       2.97017675e-01 
       2.97017675e-01 
       2.97017675e-01 
       2.97017675e-01 
       2.97017675e-01 
       2.97017675e-01 
       2.97017675e-01 
       2.97017675e-01 
       2.97017675e-01 
       2.97017675e-01 
       2.97017675e-01 
       2.97017675e-01 
       2.97017675e-01 
       2.97017675e-01 
       2.97017675e-01 
       2.97017675e-01 
       2.97017675e-01 
       2.97017675e-01 
       2.97017675e-01 
       2.97017675e-01 
       2.97017675e-01 
       2.97017675e-01 
       2.97017675e-01 
       2.97017675e-01 
       2.97017675e-01 
       2.97017675e-01 
       2.97017675e-01 
       2.97017675e-01 
       2.97017675e-01 
       2.97017675e-01 
       2.97017675e-01 
       2.97017675e-01 
       2.97017675e-01 
       2.97017675e-01 
       2.97017675e-01 
       2.97017675e-01 
       2.97017675e-01 
       2.97017675e-01 
       2.97017675e-01 
       2.97017675e-01 
       2.97017675e-01 
       2.97017675e-01 
       2.97017675e-01 
       2.97017675e-01 
       2.97017675e-01 
       2.97017675e-01 
       2.97017675e-01 
       2.97017675e-01 
       2.97017675e-01 
       2.97017675e-01 
       2.97017675e-01 
       2.97017675e-01 
       2.97017675e-01 
       2.97017675e-01 
       2.97017675e-01 
       2.97017675e-01 
       2.97017675e-01 
       2.97017675e-01 
       2.97017675e-01 
       2.97017675e-01 
       2.97017675e-01 
       2.97017675e-01 
       2.97017675e-01 
       2.97017675e-01 
       2.97017675e-01 
       2.97017675e-01 
       2.97017675e-01 
       2.97017675e-01 
       2.97017675e-01 
       2.97017675e-01 
       2.97017675e-01 
       2.97017675e-01 
       2.97017675e-01 
       2.97017675e-01 
       2.97017675e-01 
       2.97017675e-01 
       2.97017675e-01 
       2.97017675e-01 
       2.97017675e-01 
       2.97017675e-01 
       2.97017675e-01 
       2.97017675e-01 
       2.97017675e-01 
       2.97017675e-01 
       2.97017675e-01 
       2.97017675e-01 
       2.97017675e-01 
       2.97017675e-01 
       2.97017675e-01 
       2.97017675e-01 
       2.97017675e-01 
       2.97017675e-01 
       2.97017675e-01 
       2.97017675e-01 
       2.97017675e-01 

