# vtk DataFile Version 2.0
./output/uniaxialExtension_GMSH_ComplexStep/uniaxialExtension_GMSH_ComplexStep_0002.vtk
ASCII
DATASET UNSTRUCTURED_GRID

POINTS 62 float
       0.000000e+00       0.000000e+00       0.000000e+00 
       0.000000e+00       0.000000e+00       8.279870e-01 
       0.000000e+00       8.279870e-01       8.279870e-01 
       0.000000e+00       8.279870e-01       0.000000e+00 
       2.862254e+00       0.000000e+00       0.000000e+00 
       2.862254e+00       0.000000e+00       8.279870e-01 
       2.862254e+00       8.279870e-01       8.279870e-01 
       2.862254e+00       8.279870e-01       0.000000e+00 
       0.000000e+00       8.279870e-01       4.139935e-01 
       7.155636e-01       8.279870e-01       8.279870e-01 
       1.431127e+00       8.279870e-01       8.279870e-01 
       2.146691e+00       8.279870e-01       8.279870e-01 
       2.862254e+00       8.279870e-01       4.139935e-01 
       2.146691e+00       8.279870e-01       0.000000e+00 
       1.431127e+00       8.279870e-01       0.000000e+00 
       7.155636e-01       8.279870e-01       0.000000e+00 
       0.000000e+00       0.000000e+00       4.139935e-01 
       7.155636e-01       0.000000e+00       8.279870e-01 
       1.431127e+00       0.000000e+00       8.279870e-01 
       2.146691e+00       0.000000e+00       8.279870e-01 
       2.862254e+00       0.000000e+00       4.139935e-01 
       2.146691e+00       0.000000e+00       0.000000e+00 
       1.431127e+00       0.000000e+00       0.000000e+00 
       7.155636e-01       0.000000e+00       0.000000e+00 
       0.000000e+00       4.139935e-01       0.000000e+00 
       0.000000e+00       4.139935e-01       8.279870e-01 
       2.862254e+00       4.139935e-01       0.000000e+00 
       2.862254e+00       4.139935e-01       8.279870e-01 
       1.788909e+00       8.279870e-01       3.585289e-01 
       1.073345e+00       8.279870e-01       4.694581e-01 
       2.391806e+00       8.279870e-01       5.242473e-01 
       4.704485e-01       8.279870e-01       3.037397e-01 
       2.447362e+00       8.279870e-01       2.392808e-01 
       4.148924e-01       8.279870e-01       5.887062e-01 
       1.788909e+00       4.694581e-01       0.000000e+00 
       1.073345e+00       3.716348e-01       0.000000e+00 
       2.391806e+00       3.037397e-01       0.000000e+00 
       4.693807e-01       5.271010e-01       0.000000e+00 
       4.243424e-01       2.461367e-01       0.000000e+00 
       2.447362e+00       5.887062e-01       0.000000e+00 
       2.862254e+00       5.847658e-01       2.432212e-01 
       2.862254e+00       3.104951e-01       3.104951e-01 
       2.862254e+00       5.330167e-01       5.364666e-01 
       2.862254e+00       2.328714e-01       5.951157e-01 
       1.073345e+00       4.694581e-01       8.279870e-01 
       1.788909e+00       3.716348e-01       8.279870e-01 
       4.704485e-01       3.037397e-01       8.279870e-01 
       2.392874e+00       5.271010e-01       8.279870e-01 
       2.437912e+00       2.461367e-01       8.279870e-01 
       4.148924e-01       5.887062e-01       8.279870e-01 
       0.000000e+00       2.432212e-01       5.847658e-01 
       0.000000e+00       5.174919e-01       5.174919e-01 
       0.000000e+00       2.949704e-01       2.915204e-01 
       0.000000e+00       5.951157e-01       2.328714e-01 
       1.788909e+00       0.000000e+00       3.585289e-01 
       1.073345e+00       0.000000e+00       4.694581e-01 
       2.391806e+00       0.000000e+00       5.242473e-01 
       4.704485e-01       0.000000e+00       3.037397e-01 
       2.447362e+00       0.000000e+00       2.392808e-01 
       4.148924e-01       0.000000e+00       5.887062e-01 
       7.154185e-01       4.081875e-01       4.025797e-01 
       2.151108e+00       4.219912e-01       4.232492e-01 

CELLS 144 720
4 44 60 29 61 
4 34 35 54 61 
4 45 54 55 61 
4 44 29 45 61 
4 29 28 45 61 
4 29 10 45 28 
4 28 35 29 14 
4 29 10 44 45 
4 14 28 35 34 
4 9 49 33 60 
4 13 39 32 61 
4 54 58 36 61 
4 45 18 55 54 
4 22 35 55 54 
4 43 48 42 61 
4 40 39 36 61 
4 18 55 44 45 
4 22 34 35 54 
4 45 28 11 61 
4 44 49 9 60 
4 9 33 29 60 
4 56 19 48 61 
4 34 39 13 61 
4 13 32 28 61 
4 56 54 19 61 
4 34 54 36 61 
4 43 56 48 61 
4 40 30 32 61 
4 35 29 15 60 
4 46 17 59 60 
4 39 40 32 61 
4 40 42 30 61 
4 40 36 41 61 
4 59 57 50 60 
4 11 28 30 61 
4 15 29 31 60 
4 11 47 45 61 
4 15 31 37 60 
4 35 15 29 14 
4 11 45 10 28 
4 54 21 36 58 
4 59 50 46 60 
4 11 30 47 61 
4 53 37 31 60 
4 52 50 57 60 
4 15 37 35 60 
4 43 41 56 61 
4 57 55 23 60 
4 52 37 53 60 
4 23 38 57 60 
4 47 42 48 61 
4 21 36 34 54 
4 45 48 19 61 
4 53 31 51 60 
4 19 54 45 61 
4 46 50 51 60 
4 36 58 41 61 
4 13 28 34 61 
4 44 9 29 60 
4 51 33 49 60 
4 55 59 17 60 
4 56 41 58 61 
4 23 55 35 60 
4 47 30 42 61 
4 51 49 46 60 
4 35 38 23 60 
4 31 33 51 60 
4 38 37 52 60 
4 38 52 57 60 
4 31 3 37 53 
4 42 41 43 61 
4 30 6 47 42 
4 57 16 59 50 
4 40 39 26 36 
4 40 30 12 32 
4 16 57 52 50 
4 42 30 12 40 
4 18 45 19 54 
4 23 35 55 22 
4 52 53 51 60 
4 54 56 58 61 
4 34 36 39 61 
4 40 41 42 61 
4 37 24 52 53 
4 44 46 49 60 
4 36 26 40 41 
4 44 55 18 17 
4 21 34 22 54 
4 51 50 52 60 
4 31 29 33 60 
4 48 45 47 61 
4 57 0 52 38 
4 32 30 28 61 
4 53 31 8 51 
4 43 20 56 41 
4 36 41 58 4 
4 43 56 5 48 
4 46 25 51 50 
4 59 55 57 60 
4 38 35 37 60 
4 59 1 46 50 
4 38 24 52 37 
4 0 16 57 52 
4 30 12 6 42 
4 41 36 26 4 
4 27 47 6 42 
4 49 25 51 46 
4 51 31 8 33 
4 41 20 56 58 
4 31 8 3 53 
4 56 20 43 5 
4 24 37 3 53 
4 25 46 1 50 
4 51 33 2 49 
4 24 52 0 38 
4 37 15 3 31 
4 47 11 6 30 
4 58 41 20 4 
4 33 8 51 2 
4 25 51 2 49 
4 10 9 29 44 
4 14 13 28 34 
4 48 5 43 27 
4 32 12 40 7 
4 39 7 40 26 
4 16 1 59 50 
4 40 32 7 39 
4 5 56 19 48 
4 0 57 23 38 
4 46 1 59 17 
4 13 7 32 39 
4 58 21 36 4 
4 9 2 33 49 
4 61 44 55 45 
4 61 55 44 60 
4 61 35 28 34 
4 61 55 35 54 
4 61 35 55 60 
4 61 29 35 60 
4 61 35 29 28 
4 42 48 27 47 
4 42 27 48 43 
4 17 60 44 55 
4 44 60 17 46 

CELL_TYPES 144
 10
 10
 10
 10
 10
 10
 10
 10
 10
 10
 10
 10
 10
 10
 10
 10
 10
 10
 10
 10
 10
 10
 10
 10
 10
 10
 10
 10
 10
 10
 10
 10
 10
 10
 10
 10
 10
 10
 10
 10
 10
 10
 10
 10
 10
 10
 10
 10
 10
 10
 10
 10
 10
 10
 10
 10
 10
 10
 10
 10
 10
 10
 10
 10
 10
 10
 10
 10
 10
 10
 10
 10
 10
 10
 10
 10
 10
 10
 10
 10
 10
 10
 10
 10
 10
 10
 10
 10
 10
 10
 10
 10
 10
 10
 10
 10
 10
 10
 10
 10
 10
 10
 10
 10
 10
 10
 10
 10
 10
 10
 10
 10
 10
 10
 10
 10
 10
 10
 10
 10
 10
 10
 10
 10
 10
 10
 10
 10
 10
 10
 10
 10
 10
 10
 10
 10
 10
 10
 10
 10
 10
 10
 10
 10

POINT_DATA        62 
VECTORS Displacements float
       0.00000000e+00       0.00000000e+00       0.00000000e+00 
       0.00000000e+00       0.00000000e+00      -1.72012966e-01 
       0.00000000e+00      -1.72012966e-01      -1.72012966e-01 
       0.00000000e+00      -1.72012966e-01       0.00000000e+00 
       8.62254289e-01       0.00000000e+00       0.00000000e+00 
       8.62254289e-01       0.00000000e+00      -1.72012966e-01 
       8.62254289e-01      -1.72012966e-01      -1.72012966e-01 
       8.62254289e-01      -1.72012966e-01       0.00000000e+00 
       0.00000000e+00      -1.72012966e-01      -8.60064828e-02 
       2.15563572e-01      -1.72012966e-01      -1.72012966e-01 
       4.31127144e-01      -1.72012966e-01      -1.72012966e-01 
       6.46690717e-01      -1.72012966e-01      -1.72012966e-01 
       8.62254289e-01      -1.72012966e-01      -8.60064828e-02 
       6.46690717e-01      -1.72012966e-01       0.00000000e+00 
       4.31127144e-01      -1.72012966e-01       0.00000000e+00 
       2.15563572e-01      -1.72012966e-01       0.00000000e+00 
       0.00000000e+00       0.00000000e+00      -8.60064828e-02 
       2.15563572e-01       0.00000000e+00      -1.72012966e-01 
       4.31127144e-01       0.00000000e+00      -1.72012966e-01 
       6.46690717e-01       0.00000000e+00      -1.72012966e-01 
       8.62254289e-01       0.00000000e+00      -8.60064828e-02 
       6.46690717e-01       0.00000000e+00       0.00000000e+00 
       4.31127144e-01       0.00000000e+00       0.00000000e+00 
       2.15563572e-01       0.00000000e+00       0.00000000e+00 
       0.00000000e+00      -8.60064828e-02       0.00000000e+00 
       0.00000000e+00      -8.60064828e-02      -1.72012966e-01 
       8.62254289e-01      -8.60064828e-02       0.00000000e+00 
       8.62254289e-01      -8.60064828e-02      -1.72012966e-01 
       5.38908930e-01      -1.72012966e-01      -7.44837990e-02 
       3.23345358e-01      -1.72012966e-01      -9.75291667e-02 
       7.20531659e-01      -1.72012966e-01      -1.08911533e-01 
       1.41722630e-01      -1.72012966e-01      -6.31014327e-02 
       7.37267914e-01      -1.72012966e-01      -4.97102045e-02 
       1.24986375e-01      -1.72012966e-01      -1.22302761e-01 
       5.38908930e-01      -9.75291667e-02       0.00000000e+00 
       3.23345358e-01      -7.72065177e-02       0.00000000e+00 
       7.20531659e-01      -6.31014327e-02       0.00000000e+00 
       1.41400957e-01      -1.09504381e-01       0.00000000e+00 
       1.27833174e-01      -5.11344928e-02       0.00000000e+00 
       7.37267914e-01      -1.22302761e-01       0.00000000e+00 
       8.62254289e-01      -1.21484157e-01      -5.05288087e-02 
       8.62254289e-01      -6.45048621e-02      -6.45048621e-02 
       8.62254289e-01      -1.10733347e-01      -1.11450067e-01 
       8.62254289e-01      -4.83786466e-02      -1.23634319e-01 
       3.23345358e-01      -9.75291667e-02      -1.72012966e-01 
       5.38908930e-01      -7.72065177e-02      -1.72012966e-01 
       1.41722630e-01      -6.31014327e-02      -1.72012966e-01 
       7.20853332e-01      -1.09504381e-01      -1.72012966e-01 
       7.34421115e-01      -5.11344928e-02      -1.72012966e-01 
       1.24986375e-01      -1.22302761e-01      -1.72012966e-01 
       0.00000000e+00      -5.05288087e-02      -1.21484157e-01 
       0.00000000e+00      -1.07508104e-01      -1.07508104e-01 
       0.00000000e+00      -6.12796190e-02      -6.05628983e-02 
       0.00000000e+00      -1.23634319e-01      -4.83786466e-02 
       5.38908930e-01       0.00000000e+00      -7.44837990e-02 
       3.23345358e-01       0.00000000e+00      -9.75291667e-02 
       7.20531659e-01       0.00000000e+00      -1.08911533e-01 
       1.41722630e-01       0.00000000e+00      -6.31014327e-02 
       7.37267914e-01       0.00000000e+00      -4.97102045e-02 
       1.24986375e-01       0.00000000e+00      -1.22302761e-01 
       2.15519873e-01      -8.48002843e-02      -8.36352829e-02 
       6.48021572e-01      -8.76679859e-02      -8.79293295e-02 

CELL_DATA       144 
SCALARS Von_Mises float 1
LOOKUP_TABLE default
       5.24062452e-01 
       5.24062452e-01 
       5.24062452e-01 
       5.24062452e-01 
       5.24062452e-01 
       5.24062452e-01 
       5.24062452e-01 
       5.24062452e-01 
       5.24062452e-01 
       5.24062452e-01 
       5.24062452e-01 
       5.24062452e-01 
       5.24062452e-01 
       5.24062452e-01 
       5.24062452e-01 
       5.24062452e-01 
       5.24062452e-01 
       5.24062452e-01 
       5.24062452e-01 
       5.24062452e-01 
       5.24062452e-01 
       5.24062452e-01 
       5.24062452e-01 
       5.24062452e-01 
       5.24062452e-01 
       5.24062452e-01 
       5.24062452e-01 
       5.24062452e-01 
       5.24062452e-01 
       5.24062452e-01 
       5.24062452e-01 
       5.24062452e-01 
       5.24062452e-01 
       5.24062452e-01 
       5.24062452e-01 
       5.24062452e-01 
       5.24062452e-01 
       5.24062452e-01 
       5.24062452e-01 
       5.24062452e-01 
       5.24062452e-01 
       5.24062452e-01 
       5.24062452e-01 
       5.24062452e-01 
       5.24062452e-01 
       5.24062452e-01 
       5.24062452e-01 
       5.24062452e-01 
       5.24062452e-01 
       5.24062452e-01 
       5.24062452e-01 
       5.24062452e-01 
       5.24062452e-01 
       5.24062452e-01 
       5.24062452e-01 
       5.24062452e-01 
       5.24062452e-01 
       5.24062452e-01 
       5.24062452e-01 
       5.24062452e-01 
       5.24062452e-01 
       5.24062452e-01 
       5.24062452e-01 
       5.24062452e-01 
       5.24062452e-01 
       5.24062452e-01 
       5.24062452e-01 
       5.24062452e-01 
       5.24062452e-01 
       5.24062452e-01 
       5.24062452e-01 
       5.24062452e-01 
       5.24062452e-01 
       5.24062452e-01 
       5.24062452e-01 
       5.24062452e-01 
       5.24062452e-01 
       5.24062452e-01 
       5.24062452e-01 
       5.24062452e-01 
       5.24062452e-01 
       5.24062452e-01 
       5.24062452e-01 
       5.24062452e-01 
       5.24062452e-01 
       5.24062452e-01 
       5.24062452e-01 
       5.24062452e-01 
       5.24062452e-01 
       5.24062452e-01 
       5.24062452e-01 
       5.24062452e-01 
       5.24062452e-01 
       5.24062452e-01 
       5.24062452e-01 
       5.24062452e-01 
       5.24062452e-01 
       5.24062452e-01 
       5.24062452e-01 
       5.24062452e-01 
       5.24062452e-01 
       5.24062452e-01 
       5.24062452e-01 
       5.24062452e-01 
       5.24062452e-01 
       5.24062452e-01 
       5.24062452e-01 
       5.24062452e-01 
       5.24062452e-01 
       5.24062452e-01 
       5.24062452e-01 
       5.24062452e-01 
       5.24062452e-01 
       5.24062452e-01 
       5.24062452e-01 
       5.24062452e-01 
       5.24062452e-01 
       5.24062452e-01 
       5.24062452e-01 
       5.24062452e-01 
       5.24062452e-01 
       5.24062452e-01 
       5.24062452e-01 
       5.24062452e-01 
       5.24062452e-01 
       5.24062452e-01 
       5.24062452e-01 
       5.24062452e-01 
       5.24062452e-01 
       5.24062452e-01 
       5.24062452e-01 
       5.24062452e-01 
       5.24062452e-01 
       5.24062452e-01 
       5.24062452e-01 
       5.24062452e-01 
       5.24062452e-01 
       5.24062452e-01 
       5.24062452e-01 
       5.24062452e-01 
       5.24062452e-01 
       5.24062452e-01 
       5.24062452e-01 
       5.24062452e-01 

SCALARS Sxx float 1
LOOKUP_TABLE default
       5.24062452e-01 
       5.24062452e-01 
       5.24062452e-01 
       5.24062452e-01 
       5.24062452e-01 
       5.24062452e-01 
       5.24062452e-01 
       5.24062452e-01 
       5.24062452e-01 
       5.24062452e-01 
       5.24062452e-01 
       5.24062452e-01 
       5.24062452e-01 
       5.24062452e-01 
       5.24062452e-01 
       5.24062452e-01 
       5.24062452e-01 
       5.24062452e-01 
       5.24062452e-01 
       5.24062452e-01 
       5.24062452e-01 
       5.24062452e-01 
       5.24062452e-01 
       5.24062452e-01 
       5.24062452e-01 
       5.24062452e-01 
       5.24062452e-01 
       5.24062452e-01 
       5.24062452e-01 
       5.24062452e-01 
       5.24062452e-01 
       5.24062452e-01 
       5.24062452e-01 
       5.24062452e-01 
       5.24062452e-01 
       5.24062452e-01 
       5.24062452e-01 
       5.24062452e-01 
       5.24062452e-01 
       5.24062452e-01 
       5.24062452e-01 
       5.24062452e-01 
       5.24062452e-01 
       5.24062452e-01 
       5.24062452e-01 
       5.24062452e-01 
       5.24062452e-01 
       5.24062452e-01 
       5.24062452e-01 
       5.24062452e-01 
       5.24062452e-01 
       5.24062452e-01 
       5.24062452e-01 
       5.24062452e-01 
       5.24062452e-01 
       5.24062452e-01 
       5.24062452e-01 
       5.24062452e-01 
       5.24062452e-01 
       5.24062452e-01 
       5.24062452e-01 
       5.24062452e-01 
       5.24062452e-01 
       5.24062452e-01 
       5.24062452e-01 
       5.24062452e-01 
       5.24062452e-01 
       5.24062452e-01 
       5.24062452e-01 
       5.24062452e-01 
       5.24062452e-01 
       5.24062452e-01 
       5.24062452e-01 
       5.24062452e-01 
       5.24062452e-01 
       5.24062452e-01 
       5.24062452e-01 
       5.24062452e-01 
       5.24062452e-01 
       5.24062452e-01 
       5.24062452e-01 
       5.24062452e-01 
       5.24062452e-01 
       5.24062452e-01 
       5.24062452e-01 
       5.24062452e-01 
       5.24062452e-01 
       5.24062452e-01 
       5.24062452e-01 
       5.24062452e-01 
       5.24062452e-01 
       5.24062452e-01 
       5.24062452e-01 
       5.24062452e-01 
       5.24062452e-01 
       5.24062452e-01 
       5.24062452e-01 
       5.24062452e-01 
       5.24062452e-01 
       5.24062452e-01 
       5.24062452e-01 
       5.24062452e-01 
       5.24062452e-01 
       5.24062452e-01 
       5.24062452e-01 
       5.24062452e-01 
       5.24062452e-01 
       5.24062452e-01 
       5.24062452e-01 
       5.24062452e-01 
       5.24062452e-01 
       5.24062452e-01 
       5.24062452e-01 
       5.24062452e-01 
       5.24062452e-01 
       5.24062452e-01 
       5.24062452e-01 
       5.24062452e-01 
       5.24062452e-01 
       5.24062452e-01 
       5.24062452e-01 
       5.24062452e-01 
       5.24062452e-01 
       5.24062452e-01 
       5.24062452e-01 
       5.24062452e-01 
       5.24062452e-01 
       5.24062452e-01 
       5.24062452e-01 
       5.24062452e-01 
       5.24062452e-01 
       5.24062452e-01 
       5.24062452e-01 
       5.24062452e-01 
       5.24062452e-01 
       5.24062452e-01 
       5.24062452e-01 
       5.24062452e-01 
       5.24062452e-01 
       5.24062452e-01 
       5.24062452e-01 
       5.24062452e-01 
       5.24062452e-01 
       5.24062452e-01 

