# vtk DataFile Version 2.0
./output/uniaxialExtension_GMSH_ComplexStep/uniaxialExtension_GMSH_ComplexStep_0007.vtk
ASCII
DATASET UNSTRUCTURED_GRID

POINTS 62 float
       0.000000e+00       0.000000e+00       0.000000e+00 
       0.000000e+00       0.000000e+00       4.284403e-01 
       0.000000e+00       4.284403e-01       4.284403e-01 
       0.000000e+00       4.284403e-01       0.000000e+00 
       3.858219e+00       0.000000e+00       0.000000e+00 
       3.858219e+00       0.000000e+00       4.284403e-01 
       3.858219e+00       4.284403e-01       4.284403e-01 
       3.858219e+00       4.284403e-01       0.000000e+00 
       0.000000e+00       4.284403e-01       2.142201e-01 
       9.645547e-01       4.284403e-01       4.284403e-01 
       1.929109e+00       4.284403e-01       4.284403e-01 
       2.893664e+00       4.284403e-01       4.284403e-01 
       3.858219e+00       4.284403e-01       2.142201e-01 
       2.893664e+00       4.284403e-01       0.000000e+00 
       1.929109e+00       4.284403e-01       0.000000e+00 
       9.645547e-01       4.284403e-01       0.000000e+00 
       0.000000e+00       0.000000e+00       2.142201e-01 
       9.645547e-01       0.000000e+00       4.284403e-01 
       1.929109e+00       0.000000e+00       4.284403e-01 
       2.893664e+00       0.000000e+00       4.284403e-01 
       3.858219e+00       0.000000e+00       2.142201e-01 
       2.893664e+00       0.000000e+00       0.000000e+00 
       1.929109e+00       0.000000e+00       0.000000e+00 
       9.645547e-01       0.000000e+00       0.000000e+00 
       0.000000e+00       2.142201e-01       0.000000e+00 
       0.000000e+00       2.142201e-01       4.284403e-01 
       3.858219e+00       2.142201e-01       0.000000e+00 
       3.858219e+00       2.142201e-01       4.284403e-01 
       2.411387e+00       4.284403e-01       1.855201e-01 
       1.446832e+00       4.284403e-01       2.429202e-01 
       3.224071e+00       4.284403e-01       2.712708e-01 
       6.341481e-01       4.284403e-01       1.571695e-01 
       3.298958e+00       4.284403e-01       1.238154e-01 
       5.592605e-01       4.284403e-01       3.046249e-01 
       2.411387e+00       2.429202e-01       0.000000e+00 
       1.446832e+00       1.923017e-01       0.000000e+00 
       3.224071e+00       1.571695e-01       0.000000e+00 
       6.327087e-01       2.727474e-01       0.000000e+00 
       5.719987e-01       1.273629e-01       0.000000e+00 
       3.298958e+00       3.046249e-01       0.000000e+00 
       3.858219e+00       3.025860e-01       1.258543e-01 
       3.858219e+00       1.606651e-01       1.606651e-01 
       3.858219e+00       2.758084e-01       2.775936e-01 
       3.858219e+00       1.204988e-01       3.079415e-01 
       1.446832e+00       2.429202e-01       4.284403e-01 
       2.411387e+00       1.923017e-01       4.284403e-01 
       6.341481e-01       1.571695e-01       4.284403e-01 
       3.225510e+00       2.727474e-01       4.284403e-01 
       3.286220e+00       1.273629e-01       4.284403e-01 
       5.592605e-01       3.046249e-01       4.284403e-01 
       0.000000e+00       1.258543e-01       3.025860e-01 
       0.000000e+00       2.677752e-01       2.677752e-01 
       0.000000e+00       1.526319e-01       1.508467e-01 
       0.000000e+00       3.079415e-01       1.204988e-01 
       2.411387e+00       0.000000e+00       1.855201e-01 
       1.446832e+00       0.000000e+00       2.429202e-01 
       3.224071e+00       0.000000e+00       2.712708e-01 
       6.341481e-01       0.000000e+00       1.571695e-01 
       3.298958e+00       0.000000e+00       1.238154e-01 
       5.592605e-01       0.000000e+00       3.046249e-01 
       9.643592e-01       2.112158e-01       2.083141e-01 
       2.899619e+00       2.183585e-01       2.190095e-01 

CELLS 144 720
4 44 60 29 61 
4 34 35 54 61 
4 45 54 55 61 
4 44 29 45 61 
4 29 28 45 61 
4 29 10 45 28 
4 28 35 29 14 
4 29 10 44 45 
4 14 28 35 34 
4 9 49 33 60 
4 13 39 32 61 
4 54 58 36 61 
4 45 18 55 54 
4 22 35 55 54 
4 43 48 42 61 
4 40 39 36 61 
4 18 55 44 45 
4 22 34 35 54 
4 45 28 11 61 
4 44 49 9 60 
4 9 33 29 60 
4 56 19 48 61 
4 34 39 13 61 
4 13 32 28 61 
4 56 54 19 61 
4 34 54 36 61 
4 43 56 48 61 
4 40 30 32 61 
4 35 29 15 60 
4 46 17 59 60 
4 39 40 32 61 
4 40 42 30 61 
4 40 36 41 61 
4 59 57 50 60 
4 11 28 30 61 
4 15 29 31 60 
4 11 47 45 61 
4 15 31 37 60 
4 35 15 29 14 
4 11 45 10 28 
4 54 21 36 58 
4 59 50 46 60 
4 11 30 47 61 
4 53 37 31 60 
4 52 50 57 60 
4 15 37 35 60 
4 43 41 56 61 
4 57 55 23 60 
4 52 37 53 60 
4 23 38 57 60 
4 47 42 48 61 
4 21 36 34 54 
4 45 48 19 61 
4 53 31 51 60 
4 19 54 45 61 
4 46 50 51 60 
4 36 58 41 61 
4 13 28 34 61 
4 44 9 29 60 
4 51 33 49 60 
4 55 59 17 60 
4 56 41 58 61 
4 23 55 35 60 
4 47 30 42 61 
4 51 49 46 60 
4 35 38 23 60 
4 31 33 51 60 
4 38 37 52 60 
4 38 52 57 60 
4 31 3 37 53 
4 42 41 43 61 
4 30 6 47 42 
4 57 16 59 50 
4 40 39 26 36 
4 40 30 12 32 
4 16 57 52 50 
4 42 30 12 40 
4 18 45 19 54 
4 23 35 55 22 
4 52 53 51 60 
4 54 56 58 61 
4 34 36 39 61 
4 40 41 42 61 
4 37 24 52 53 
4 44 46 49 60 
4 36 26 40 41 
4 44 55 18 17 
4 21 34 22 54 
4 51 50 52 60 
4 31 29 33 60 
4 48 45 47 61 
4 57 0 52 38 
4 32 30 28 61 
4 53 31 8 51 
4 43 20 56 41 
4 36 41 58 4 
4 43 56 5 48 
4 46 25 51 50 
4 59 55 57 60 
4 38 35 37 60 
4 59 1 46 50 
4 38 24 52 37 
4 0 16 57 52 
4 30 12 6 42 
4 41 36 26 4 
4 27 47 6 42 
4 49 25 51 46 
4 51 31 8 33 
4 41 20 56 58 
4 31 8 3 53 
4 56 20 43 5 
4 24 37 3 53 
4 25 46 1 50 
4 51 33 2 49 
4 24 52 0 38 
4 37 15 3 31 
4 47 11 6 30 
4 58 41 20 4 
4 33 8 51 2 
4 25 51 2 49 
4 10 9 29 44 
4 14 13 28 34 
4 48 5 43 27 
4 32 12 40 7 
4 39 7 40 26 
4 16 1 59 50 
4 40 32 7 39 
4 5 56 19 48 
4 0 57 23 38 
4 46 1 59 17 
4 13 7 32 39 
4 58 21 36 4 
4 9 2 33 49 
4 61 44 55 45 
4 61 55 44 60 
4 61 35 28 34 
4 61 55 35 54 
4 61 35 55 60 
4 61 29 35 60 
4 61 35 29 28 
4 42 48 27 47 
4 42 27 48 43 
4 17 60 44 55 
4 44 60 17 46 

CELL_TYPES 144
 10
 10
 10
 10
 10
 10
 10
 10
 10
 10
 10
 10
 10
 10
 10
 10
 10
 10
 10
 10
 10
 10
 10
 10
 10
 10
 10
 10
 10
 10
 10
 10
 10
 10
 10
 10
 10
 10
 10
 10
 10
 10
 10
 10
 10
 10
 10
 10
 10
 10
 10
 10
 10
 10
 10
 10
 10
 10
 10
 10
 10
 10
 10
 10
 10
 10
 10
 10
 10
 10
 10
 10
 10
 10
 10
 10
 10
 10
 10
 10
 10
 10
 10
 10
 10
 10
 10
 10
 10
 10
 10
 10
 10
 10
 10
 10
 10
 10
 10
 10
 10
 10
 10
 10
 10
 10
 10
 10
 10
 10
 10
 10
 10
 10
 10
 10
 10
 10
 10
 10
 10
 10
 10
 10
 10
 10
 10
 10
 10
 10
 10
 10
 10
 10
 10
 10
 10
 10
 10
 10
 10
 10
 10
 10

POINT_DATA        62 
VECTORS Displacements float
       0.00000000e+00       0.00000000e+00       0.00000000e+00 
       0.00000000e+00       0.00000000e+00      -5.71559716e-01 
       0.00000000e+00      -5.71559716e-01      -5.71559716e-01 
       0.00000000e+00      -5.71559716e-01       0.00000000e+00 
       1.85821880e+00       0.00000000e+00       0.00000000e+00 
       1.85821880e+00       0.00000000e+00      -5.71559716e-01 
       1.85821880e+00      -5.71559716e-01      -5.71559716e-01 
       1.85821880e+00      -5.71559716e-01       0.00000000e+00 
       0.00000000e+00      -5.71559716e-01      -2.85779858e-01 
       4.64554700e-01      -5.71559716e-01      -5.71559716e-01 
       9.29109400e-01      -5.71559716e-01      -5.71559716e-01 
       1.39366410e+00      -5.71559716e-01      -5.71559716e-01 
       1.85821880e+00      -5.71559716e-01      -2.85779858e-01 
       1.39366410e+00      -5.71559716e-01       0.00000000e+00 
       9.29109400e-01      -5.71559716e-01       0.00000000e+00 
       4.64554700e-01      -5.71559716e-01       0.00000000e+00 
       0.00000000e+00       0.00000000e+00      -2.85779858e-01 
       4.64554700e-01       0.00000000e+00      -5.71559716e-01 
       9.29109400e-01       0.00000000e+00      -5.71559716e-01 
       1.39366410e+00       0.00000000e+00      -5.71559716e-01 
       1.85821880e+00       0.00000000e+00      -2.85779858e-01 
       1.39366410e+00       0.00000000e+00       0.00000000e+00 
       9.29109400e-01       0.00000000e+00       0.00000000e+00 
       4.64554700e-01       0.00000000e+00       0.00000000e+00 
       0.00000000e+00      -2.85779858e-01       0.00000000e+00 
       0.00000000e+00      -2.85779858e-01      -5.71559716e-01 
       1.85821880e+00      -2.85779858e-01       0.00000000e+00 
       1.85821880e+00      -2.85779858e-01      -5.71559716e-01 
       1.16138675e+00      -5.71559716e-01      -2.47492617e-01 
       6.96832050e-01      -5.71559716e-01      -3.24067099e-01 
       1.55279654e+00      -5.71559716e-01      -3.61888097e-01 
       3.05422261e-01      -5.71559716e-01      -2.09671619e-01 
       1.58886435e+00      -5.71559716e-01      -1.65175632e-01 
       2.69354452e-01      -5.71559716e-01      -4.06384083e-01 
       1.16138675e+00      -3.24067099e-01       0.00000000e+00 
       6.96832050e-01      -2.56539588e-01       0.00000000e+00 
       1.55279654e+00      -2.09671619e-01       0.00000000e+00 
       3.04729034e-01      -3.63857995e-01       0.00000000e+00 
       2.75489504e-01      -1.69908216e-01       0.00000000e+00 
       1.58886435e+00      -4.06384083e-01       0.00000000e+00 
       1.85821880e+00      -4.03664049e-01      -1.67895666e-01 
       1.85821880e+00      -2.14334893e-01      -2.14334893e-01 
       1.85821880e+00      -3.67941567e-01      -3.70323066e-01 
       1.85821880e+00      -1.60751170e-01      -4.10808546e-01 
       6.96832050e-01      -3.24067099e-01      -5.71559716e-01 
       1.16138675e+00      -2.56539588e-01      -5.71559716e-01 
       3.05422261e-01      -2.09671619e-01      -5.71559716e-01 
       1.55348977e+00      -3.63857995e-01      -5.71559716e-01 
       1.58272930e+00      -1.69908216e-01      -5.71559716e-01 
       2.69354452e-01      -4.06384083e-01      -5.71559716e-01 
       0.00000000e+00      -1.67895666e-01      -4.03664049e-01 
       0.00000000e+00      -3.57224822e-01      -3.57224822e-01 
       0.00000000e+00      -2.03618149e-01      -2.01236650e-01 
       0.00000000e+00      -4.10808546e-01      -1.60751170e-01 
       1.16138675e+00       0.00000000e+00      -2.47492617e-01 
       6.96832050e-01       0.00000000e+00      -3.24067099e-01 
       1.55279654e+00       0.00000000e+00      -3.61888097e-01 
       3.05422261e-01       0.00000000e+00      -2.09671619e-01 
       1.58886435e+00       0.00000000e+00      -1.65175632e-01 
       2.69354452e-01       0.00000000e+00      -4.06384083e-01 
       4.64460526e-01      -2.81771936e-01      -2.77900903e-01 
       1.39653219e+00      -2.91300652e-01      -2.92169037e-01 

CELL_DATA       144 
SCALARS Von_Mises float 1
LOOKUP_TABLE default
       1.36073154e+00 
       1.36073154e+00 
       1.36073154e+00 
       1.36073154e+00 
       1.36073154e+00 
       1.36073154e+00 
       1.36073154e+00 
       1.36073154e+00 
       1.36073154e+00 
       1.36073154e+00 
       1.36073154e+00 
       1.36073154e+00 
       1.36073154e+00 
       1.36073154e+00 
       1.36073154e+00 
       1.36073154e+00 
       1.36073154e+00 
       1.36073154e+00 
       1.36073154e+00 
       1.36073154e+00 
       1.36073154e+00 
       1.36073154e+00 
       1.36073154e+00 
       1.36073154e+00 
       1.36073154e+00 
       1.36073154e+00 
       1.36073154e+00 
       1.36073154e+00 
       1.36073154e+00 
       1.36073154e+00 
       1.36073154e+00 
       1.36073154e+00 
       1.36073154e+00 
       1.36073154e+00 
       1.36073154e+00 
       1.36073154e+00 
       1.36073154e+00 
       1.36073154e+00 
       1.36073154e+00 
       1.36073154e+00 
       1.36073154e+00 
       1.36073154e+00 
       1.36073154e+00 
       1.36073154e+00 
       1.36073154e+00 
       1.36073154e+00 
       1.36073154e+00 
       1.36073154e+00 
       1.36073154e+00 
       1.36073154e+00 
       1.36073154e+00 
       1.36073154e+00 
       1.36073154e+00 
       1.36073154e+00 
       1.36073154e+00 
       1.36073154e+00 
       1.36073154e+00 
       1.36073154e+00 
       1.36073154e+00 
       1.36073154e+00 
       1.36073154e+00 
       1.36073154e+00 
       1.36073154e+00 
       1.36073154e+00 
       1.36073154e+00 
       1.36073154e+00 
       1.36073154e+00 
       1.36073154e+00 
       1.36073154e+00 
       1.36073154e+00 
       1.36073154e+00 
       1.36073154e+00 
       1.36073154e+00 
       1.36073154e+00 
       1.36073154e+00 
       1.36073154e+00 
       1.36073154e+00 
       1.36073154e+00 
       1.36073154e+00 
       1.36073154e+00 
       1.36073154e+00 
       1.36073154e+00 
       1.36073154e+00 
       1.36073154e+00 
       1.36073154e+00 
       1.36073154e+00 
       1.36073154e+00 
       1.36073154e+00 
       1.36073154e+00 
       1.36073154e+00 
       1.36073154e+00 
       1.36073154e+00 
       1.36073154e+00 
       1.36073154e+00 
       1.36073154e+00 
       1.36073154e+00 
       1.36073154e+00 
       1.36073154e+00 
       1.36073154e+00 
       1.36073154e+00 
       1.36073154e+00 
       1.36073154e+00 
       1.36073154e+00 
       1.36073154e+00 
       1.36073154e+00 
       1.36073154e+00 
       1.36073154e+00 
       1.36073154e+00 
       1.36073154e+00 
       1.36073154e+00 
       1.36073154e+00 
       1.36073154e+00 
       1.36073154e+00 
       1.36073154e+00 
       1.36073154e+00 
       1.36073154e+00 
       1.36073154e+00 
       1.36073154e+00 
       1.36073154e+00 
       1.36073154e+00 
       1.36073154e+00 
       1.36073154e+00 
       1.36073154e+00 
       1.36073154e+00 
       1.36073154e+00 
       1.36073154e+00 
       1.36073154e+00 
       1.36073154e+00 
       1.36073154e+00 
       1.36073154e+00 
       1.36073154e+00 
       1.36073154e+00 
       1.36073154e+00 
       1.36073154e+00 
       1.36073154e+00 
       1.36073154e+00 
       1.36073154e+00 
       1.36073154e+00 
       1.36073154e+00 
       1.36073154e+00 
       1.36073154e+00 
       1.36073154e+00 
       1.36073154e+00 
       1.36073154e+00 

SCALARS Sxx float 1
LOOKUP_TABLE default
       1.36073154e+00 
       1.36073154e+00 
       1.36073154e+00 
       1.36073154e+00 
       1.36073154e+00 
       1.36073154e+00 
       1.36073154e+00 
       1.36073154e+00 
       1.36073154e+00 
       1.36073154e+00 
       1.36073154e+00 
       1.36073154e+00 
       1.36073154e+00 
       1.36073154e+00 
       1.36073154e+00 
       1.36073154e+00 
       1.36073154e+00 
       1.36073154e+00 
       1.36073154e+00 
       1.36073154e+00 
       1.36073154e+00 
       1.36073154e+00 
       1.36073154e+00 
       1.36073154e+00 
       1.36073154e+00 
       1.36073154e+00 
       1.36073154e+00 
       1.36073154e+00 
       1.36073154e+00 
       1.36073154e+00 
       1.36073154e+00 
       1.36073154e+00 
       1.36073154e+00 
       1.36073154e+00 
       1.36073154e+00 
       1.36073154e+00 
       1.36073154e+00 
       1.36073154e+00 
       1.36073154e+00 
       1.36073154e+00 
       1.36073154e+00 
       1.36073154e+00 
       1.36073154e+00 
       1.36073154e+00 
       1.36073154e+00 
       1.36073154e+00 
       1.36073154e+00 
       1.36073154e+00 
       1.36073154e+00 
       1.36073154e+00 
       1.36073154e+00 
       1.36073154e+00 
       1.36073154e+00 
       1.36073154e+00 
       1.36073154e+00 
       1.36073154e+00 
       1.36073154e+00 
       1.36073154e+00 
       1.36073154e+00 
       1.36073154e+00 
       1.36073154e+00 
       1.36073154e+00 
       1.36073154e+00 
       1.36073154e+00 
       1.36073154e+00 
       1.36073154e+00 
       1.36073154e+00 
       1.36073154e+00 
       1.36073154e+00 
       1.36073154e+00 
       1.36073154e+00 
       1.36073154e+00 
       1.36073154e+00 
       1.36073154e+00 
       1.36073154e+00 
       1.36073154e+00 
       1.36073154e+00 
       1.36073154e+00 
       1.36073154e+00 
       1.36073154e+00 
       1.36073154e+00 
       1.36073154e+00 
       1.36073154e+00 
       1.36073154e+00 
       1.36073154e+00 
       1.36073154e+00 
       1.36073154e+00 
       1.36073154e+00 
       1.36073154e+00 
       1.36073154e+00 
       1.36073154e+00 
       1.36073154e+00 
       1.36073154e+00 
       1.36073154e+00 
       1.36073154e+00 
       1.36073154e+00 
       1.36073154e+00 
       1.36073154e+00 
       1.36073154e+00 
       1.36073154e+00 
       1.36073154e+00 
       1.36073154e+00 
       1.36073154e+00 
       1.36073154e+00 
       1.36073154e+00 
       1.36073154e+00 
       1.36073154e+00 
       1.36073154e+00 
       1.36073154e+00 
       1.36073154e+00 
       1.36073154e+00 
       1.36073154e+00 
       1.36073154e+00 
       1.36073154e+00 
       1.36073154e+00 
       1.36073154e+00 
       1.36073154e+00 
       1.36073154e+00 
       1.36073154e+00 
       1.36073154e+00 
       1.36073154e+00 
       1.36073154e+00 
       1.36073154e+00 
       1.36073154e+00 
       1.36073154e+00 
       1.36073154e+00 
       1.36073154e+00 
       1.36073154e+00 
       1.36073154e+00 
       1.36073154e+00 
       1.36073154e+00 
       1.36073154e+00 
       1.36073154e+00 
       1.36073154e+00 
       1.36073154e+00 
       1.36073154e+00 
       1.36073154e+00 
       1.36073154e+00 
       1.36073154e+00 
       1.36073154e+00 
       1.36073154e+00 
       1.36073154e+00 
       1.36073154e+00 
       1.36073154e+00 

